<?xml version="1.0" encoding="UTF-8"?>

<!-- generated on 日  5/15 23:39:09 2022 by Eclipse SUMO GUI Version 1.8.0
<configuration xmlns:xsi="http://www.w3.org/2001/XMLSchema-instance" xsi:noNamespaceSchemaLocation="http://sumo.dlr.de/xsd/sumoConfiguration.xsd">

    <input>
        <net-file value="net.net.xml"/>
        <route-files value="routes.rou.xml"/>
    </input>

    <output>
        <tripinfo-output value="raw_data/(0,1,0)tripinfo.xml"/>
    </output>

    <time>
        <begin value="0"/>
        <step-length value="0.1"/>
    </time>

    <report>
        <verbose value="false"/>
        <log value="log.txt"/>
        <duration-log.statistics value="true"/>
        <no-step-log value="true"/>
    </report>

    <traci_server>
        <remote-port value="56634"/>
    </traci_server>

    <gui_only>
        <tracker-interval value="0.1"/>
    </gui_only>

</configuration>
-->

<tripinfos xmlns:xsi="http://www.w3.org/2001/XMLSchema-instance" xsi:noNamespaceSchemaLocation="http://sumo.dlr.de/xsd/tripinfo_file.xsd">
    <tripinfo id="EW_0" depart="1.00" departLane="ec_0" departPos="5.10" departSpeed="8.00" departDelay="0.00" arrival="250.40" arrivalLane="cw_0" arrivalPos="992.80" arrivalSpeed="8.00" duration="249.40" routeLength="1994.90" waitingTime="0.00" waitingCount="0" stopTime="0.00" timeLoss="0.00" rerouteNo="0" devices="tripinfo_EW_0" vType="typeCar" speedFactor="1.00" vaporized=""/>
    <tripinfo id="WN_2" depart="2.00" departLane="wc_0" departPos="5.10" departSpeed="8.00" departDelay="0.00" arrival="252.40" arrivalLane="cn_0" arrivalPos="992.80" arrivalSpeed="8.00" duration="250.40" routeLength="1993.94" waitingTime="0.00" waitingCount="0" stopTime="0.00" timeLoss="1.10" rerouteNo="0" devices="tripinfo_WN_2" vType="typeCar" speedFactor="1.00" vaporized=""/>
    <tripinfo id="ES_1" depart="3.00" departLane="ec_0" departPos="5.10" departSpeed="8.00" departDelay="2.00" arrival="253.60" arrivalLane="cs_0" arrivalPos="992.80" arrivalSpeed="8.00" duration="250.60" routeLength="1993.94" waitingTime="0.00" waitingCount="0" stopTime="0.00" timeLoss="1.29" rerouteNo="0" devices="tripinfo_ES_1" vType="typeCar" speedFactor="1.00" vaporized=""/>
    <tripinfo id="WE_4" depart="4.00" departLane="wc_0" departPos="5.10" departSpeed="8.00" departDelay="1.00" arrival="255.50" arrivalLane="ce_0" arrivalPos="992.80" arrivalSpeed="8.00" duration="251.50" routeLength="1994.90" waitingTime="0.00" waitingCount="0" stopTime="0.00" timeLoss="2.12" rerouteNo="0" devices="tripinfo_WE_4" vType="typeCar" speedFactor="1.00" vaporized=""/>
    <tripinfo id="EW_3" depart="5.00" departLane="ec_0" departPos="5.10" departSpeed="8.00" departDelay="3.00" arrival="256.40" arrivalLane="cw_0" arrivalPos="992.80" arrivalSpeed="8.00" duration="251.40" routeLength="1994.90" waitingTime="0.00" waitingCount="0" stopTime="0.00" timeLoss="1.98" rerouteNo="0" devices="tripinfo_EW_3" vType="typeCar" speedFactor="1.00" vaporized=""/>
    <tripinfo id="WE_6" depart="6.00" departLane="wc_0" departPos="5.10" departSpeed="8.00" departDelay="1.00" arrival="258.60" arrivalLane="ce_0" arrivalPos="992.80" arrivalSpeed="8.00" duration="252.60" routeLength="1994.90" waitingTime="0.00" waitingCount="0" stopTime="0.00" timeLoss="3.17" rerouteNo="0" devices="tripinfo_WE_6" vType="typeCar" speedFactor="1.00" vaporized=""/>
    <tripinfo id="EW_5" depart="7.00" departLane="ec_0" departPos="5.10" departSpeed="8.00" departDelay="3.00" arrival="259.80" arrivalLane="cw_0" arrivalPos="992.80" arrivalSpeed="8.00" duration="252.80" routeLength="1994.90" waitingTime="0.00" waitingCount="0" stopTime="0.00" timeLoss="3.37" rerouteNo="0" devices="tripinfo_EW_5" vType="typeCar" speedFactor="1.00" vaporized=""/>
    <tripinfo id="WN_10" depart="8.00" departLane="wc_0" departPos="5.10" departSpeed="8.00" departDelay="1.00" arrival="261.90" arrivalLane="cn_0" arrivalPos="992.80" arrivalSpeed="8.00" duration="253.90" routeLength="1993.94" waitingTime="0.00" waitingCount="0" stopTime="0.00" timeLoss="4.60" rerouteNo="0" devices="tripinfo_WN_10" vType="typeCar" speedFactor="1.00" vaporized=""/>
    <tripinfo id="EW_7" depart="9.00" departLane="ec_0" departPos="5.10" departSpeed="8.00" departDelay="4.00" arrival="264.00" arrivalLane="cw_0" arrivalPos="992.80" arrivalSpeed="8.00" duration="255.00" routeLength="1994.90" waitingTime="0.00" waitingCount="0" stopTime="0.00" timeLoss="5.61" rerouteNo="0" devices="tripinfo_EW_7" vType="typeCar" speedFactor="1.00" vaporized=""/>
    <tripinfo id="WE_14" depart="10.00" departLane="wc_0" departPos="5.10" departSpeed="8.00" departDelay="0.00" arrival="265.20" arrivalLane="ce_0" arrivalPos="992.80" arrivalSpeed="8.00" duration="255.20" routeLength="1994.90" waitingTime="0.00" waitingCount="0" stopTime="0.00" timeLoss="5.76" rerouteNo="0" devices="tripinfo_WE_14" vType="typeCar" speedFactor="1.00" vaporized=""/>
    <tripinfo id="EW_8" depart="11.00" departLane="ec_0" departPos="5.10" departSpeed="8.00" departDelay="5.00" arrival="267.20" arrivalLane="cw_0" arrivalPos="992.80" arrivalSpeed="8.00" duration="256.20" routeLength="1994.90" waitingTime="0.00" waitingCount="0" stopTime="0.00" timeLoss="6.77" rerouteNo="0" devices="tripinfo_EW_8" vType="typeCar" speedFactor="1.00" vaporized=""/>
    <tripinfo id="WE_15" depart="13.00" departLane="wc_0" departPos="5.10" departSpeed="8.00" departDelay="0.00" arrival="267.90" arrivalLane="ce_0" arrivalPos="992.80" arrivalSpeed="8.00" duration="254.90" routeLength="1994.90" waitingTime="0.00" waitingCount="0" stopTime="0.00" timeLoss="5.49" rerouteNo="0" devices="tripinfo_WE_15" vType="typeCar" speedFactor="1.00" vaporized=""/>
    <tripinfo id="EN_9" depart="13.00" departLane="ec_0" departPos="5.10" departSpeed="8.00" departDelay="7.00" arrival="269.60" arrivalLane="cn_0" arrivalPos="992.80" arrivalSpeed="8.00" duration="256.60" routeLength="1989.53" waitingTime="0.00" waitingCount="0" stopTime="0.00" timeLoss="7.58" rerouteNo="0" devices="tripinfo_EN_9" vType="typeCar" speedFactor="1.00" vaporized=""/>
    <tripinfo id="WE_16" depart="15.00" departLane="wc_0" departPos="5.10" departSpeed="8.00" departDelay="0.00" arrival="271.50" arrivalLane="ce_0" arrivalPos="992.80" arrivalSpeed="8.00" duration="256.50" routeLength="1994.90" waitingTime="0.00" waitingCount="0" stopTime="0.00" timeLoss="7.06" rerouteNo="0" devices="tripinfo_WE_16" vType="typeCar" speedFactor="1.00" vaporized=""/>
    <tripinfo id="EW_11" depart="15.00" departLane="ec_0" departPos="5.10" departSpeed="8.00" departDelay="8.00" arrival="273.20" arrivalLane="cw_0" arrivalPos="992.80" arrivalSpeed="8.00" duration="258.20" routeLength="1994.90" waitingTime="0.00" waitingCount="0" stopTime="0.00" timeLoss="8.81" rerouteNo="0" devices="tripinfo_EW_11" vType="typeCar" speedFactor="1.00" vaporized=""/>
    <tripinfo id="WS_19" depart="17.00" departLane="wc_0" departPos="5.10" departSpeed="8.00" departDelay="0.00" arrival="274.20" arrivalLane="cs_0" arrivalPos="992.80" arrivalSpeed="8.00" duration="257.20" routeLength="1989.53" waitingTime="0.00" waitingCount="0" stopTime="0.00" timeLoss="8.25" rerouteNo="0" devices="tripinfo_WS_19" vType="typeCar" speedFactor="1.00" vaporized=""/>
    <tripinfo id="ES_12" depart="17.00" departLane="ec_0" departPos="5.10" departSpeed="8.00" departDelay="10.00" arrival="276.30" arrivalLane="cs_0" arrivalPos="992.80" arrivalSpeed="8.00" duration="259.30" routeLength="1993.94" waitingTime="0.00" waitingCount="0" stopTime="0.00" timeLoss="10.02" rerouteNo="0" devices="tripinfo_ES_12" vType="typeCar" speedFactor="1.00" vaporized=""/>
    <tripinfo id="WE_21" depart="19.00" departLane="wc_0" departPos="5.10" departSpeed="8.00" departDelay="1.00" arrival="279.00" arrivalLane="ce_0" arrivalPos="992.80" arrivalSpeed="8.00" duration="260.00" routeLength="1994.90" waitingTime="0.00" waitingCount="0" stopTime="0.00" timeLoss="10.57" rerouteNo="0" devices="tripinfo_WE_21" vType="typeCar" speedFactor="1.00" vaporized=""/>
    <tripinfo id="EW_13" depart="19.00" departLane="ec_0" departPos="5.10" departSpeed="8.00" departDelay="11.00" arrival="279.80" arrivalLane="cw_0" arrivalPos="992.80" arrivalSpeed="8.00" duration="260.80" routeLength="1994.90" waitingTime="0.00" waitingCount="0" stopTime="0.00" timeLoss="11.36" rerouteNo="0" devices="tripinfo_EW_13" vType="typeCar" speedFactor="1.00" vaporized=""/>
    <tripinfo id="EW_17" depart="21.00" departLane="ec_0" departPos="5.10" departSpeed="8.00" departDelay="6.00" arrival="283.50" arrivalLane="cw_0" arrivalPos="992.80" arrivalSpeed="8.00" duration="262.50" routeLength="1994.90" waitingTime="0.00" waitingCount="0" stopTime="0.00" timeLoss="13.12" rerouteNo="0" devices="tripinfo_EW_17" vType="typeCar" speedFactor="1.00" vaporized=""/>
    <tripinfo id="WN_24" depart="23.00" departLane="wc_0" departPos="5.10" departSpeed="8.00" departDelay="0.00" arrival="285.30" arrivalLane="cn_0" arrivalPos="992.80" arrivalSpeed="8.00" duration="262.30" routeLength="1993.94" waitingTime="0.00" waitingCount="0" stopTime="0.00" timeLoss="12.98" rerouteNo="0" devices="tripinfo_WN_24" vType="typeCar" speedFactor="1.00" vaporized=""/>
    <tripinfo id="EW_18" depart="23.00" departLane="ec_0" departPos="5.10" departSpeed="8.00" departDelay="7.00" arrival="287.70" arrivalLane="cw_0" arrivalPos="992.80" arrivalSpeed="8.00" duration="264.70" routeLength="1994.90" waitingTime="0.00" waitingCount="0" stopTime="0.00" timeLoss="15.27" rerouteNo="0" devices="tripinfo_EW_18" vType="typeCar" speedFactor="1.00" vaporized=""/>
    <tripinfo id="WE_25" depart="25.00" departLane="wc_0" departPos="5.10" departSpeed="8.00" departDelay="1.00" arrival="289.40" arrivalLane="ce_0" arrivalPos="992.80" arrivalSpeed="8.00" duration="264.40" routeLength="1994.90" waitingTime="0.00" waitingCount="0" stopTime="0.00" timeLoss="14.98" rerouteNo="0" devices="tripinfo_WE_25" vType="typeCar" speedFactor="1.00" vaporized=""/>
    <tripinfo id="EW_20" depart="25.00" departLane="ec_0" departPos="5.10" departSpeed="8.00" departDelay="8.00" arrival="291.10" arrivalLane="cw_0" arrivalPos="992.80" arrivalSpeed="8.00" duration="266.10" routeLength="1994.90" waitingTime="0.00" waitingCount="0" stopTime="0.00" timeLoss="16.70" rerouteNo="0" devices="tripinfo_EW_20" vType="typeCar" speedFactor="1.00" vaporized=""/>
    <tripinfo id="WS_26" depart="27.00" departLane="wc_0" departPos="5.10" departSpeed="8.00" departDelay="3.00" arrival="292.20" arrivalLane="cs_0" arrivalPos="992.80" arrivalSpeed="8.00" duration="265.20" routeLength="1989.53" waitingTime="0.00" waitingCount="0" stopTime="0.00" timeLoss="16.19" rerouteNo="0" devices="tripinfo_WS_26" vType="typeCar" speedFactor="1.00" vaporized=""/>
    <tripinfo id="EW_22" depart="27.00" departLane="ec_0" departPos="5.10" departSpeed="8.00" departDelay="8.00" arrival="295.00" arrivalLane="cw_0" arrivalPos="992.80" arrivalSpeed="8.00" duration="268.00" routeLength="1994.90" waitingTime="0.00" waitingCount="0" stopTime="0.00" timeLoss="18.65" rerouteNo="0" devices="tripinfo_EW_22" vType="typeCar" speedFactor="1.00" vaporized=""/>
    <tripinfo id="WE_27" depart="29.00" departLane="wc_0" departPos="5.10" departSpeed="8.00" departDelay="4.00" arrival="296.30" arrivalLane="ce_0" arrivalPos="992.80" arrivalSpeed="8.00" duration="267.30" routeLength="1994.90" waitingTime="0.00" waitingCount="0" stopTime="0.00" timeLoss="17.89" rerouteNo="0" devices="tripinfo_WE_27" vType="typeCar" speedFactor="1.00" vaporized=""/>
    <tripinfo id="EW_23" depart="29.00" departLane="ec_0" departPos="5.10" departSpeed="8.00" departDelay="9.00" arrival="298.50" arrivalLane="cw_0" arrivalPos="992.80" arrivalSpeed="8.00" duration="269.50" routeLength="1994.90" waitingTime="0.00" waitingCount="0" stopTime="0.00" timeLoss="20.13" rerouteNo="0" devices="tripinfo_EW_23" vType="typeCar" speedFactor="1.00" vaporized=""/>
    <tripinfo id="WN_31" depart="31.00" departLane="wc_0" departPos="5.10" departSpeed="8.00" departDelay="0.00" arrival="300.50" arrivalLane="cn_0" arrivalPos="992.80" arrivalSpeed="8.00" duration="269.50" routeLength="1993.94" waitingTime="0.00" waitingCount="0" stopTime="0.00" timeLoss="20.15" rerouteNo="0" devices="tripinfo_WN_31" vType="typeCar" speedFactor="1.00" vaporized=""/>
    <tripinfo id="EW_28" depart="31.00" departLane="ec_0" departPos="5.10" departSpeed="8.00" departDelay="3.00" arrival="303.40" arrivalLane="cw_0" arrivalPos="992.80" arrivalSpeed="8.00" duration="272.40" routeLength="1994.90" waitingTime="0.00" waitingCount="0" stopTime="0.00" timeLoss="23.03" rerouteNo="0" devices="tripinfo_EW_28" vType="typeCar" speedFactor="1.00" vaporized=""/>
    <tripinfo id="WS_32" depart="33.00" departLane="wc_0" departPos="5.10" departSpeed="8.00" departDelay="2.00" arrival="303.50" arrivalLane="cs_0" arrivalPos="992.80" arrivalSpeed="8.00" duration="270.50" routeLength="1989.53" waitingTime="0.00" waitingCount="0" stopTime="0.00" timeLoss="21.54" rerouteNo="0" devices="tripinfo_WS_32" vType="typeCar" speedFactor="1.00" vaporized=""/>
    <tripinfo id="ES_29" depart="33.00" departLane="ec_0" departPos="5.10" departSpeed="8.00" departDelay="5.00" arrival="306.40" arrivalLane="cs_0" arrivalPos="992.80" arrivalSpeed="8.00" duration="273.40" routeLength="1993.94" waitingTime="0.00" waitingCount="0" stopTime="0.00" timeLoss="24.03" rerouteNo="0" devices="tripinfo_ES_29" vType="typeCar" speedFactor="1.00" vaporized=""/>
    <tripinfo id="WS_35" depart="35.00" departLane="wc_0" departPos="5.10" departSpeed="8.00" departDelay="2.00" arrival="308.90" arrivalLane="cs_0" arrivalPos="992.80" arrivalSpeed="8.00" duration="273.90" routeLength="1989.53" waitingTime="0.00" waitingCount="0" stopTime="0.00" timeLoss="24.87" rerouteNo="0" devices="tripinfo_WS_35" vType="typeCar" speedFactor="1.00" vaporized=""/>
    <tripinfo id="ES_30" depart="35.00" departLane="ec_0" departPos="5.10" departSpeed="8.00" departDelay="6.00" arrival="311.40" arrivalLane="cs_0" arrivalPos="992.80" arrivalSpeed="8.00" duration="276.40" routeLength="1993.94" waitingTime="0.00" waitingCount="0" stopTime="0.00" timeLoss="27.03" rerouteNo="0" devices="tripinfo_ES_30" vType="typeCar" speedFactor="1.00" vaporized=""/>
    <tripinfo id="WN_37" depart="37.00" departLane="wc_0" departPos="5.10" departSpeed="8.00" departDelay="2.00" arrival="313.10" arrivalLane="cn_0" arrivalPos="992.80" arrivalSpeed="8.00" duration="276.10" routeLength="1993.94" waitingTime="0.00" waitingCount="0" stopTime="0.00" timeLoss="26.75" rerouteNo="0" devices="tripinfo_WN_37" vType="typeCar" speedFactor="1.00" vaporized=""/>
    <tripinfo id="EN_33" depart="37.00" departLane="ec_0" departPos="5.10" departSpeed="8.00" departDelay="5.00" arrival="315.60" arrivalLane="cn_0" arrivalPos="992.80" arrivalSpeed="8.00" duration="278.60" routeLength="1989.53" waitingTime="0.00" waitingCount="0" stopTime="0.00" timeLoss="29.60" rerouteNo="0" devices="tripinfo_EN_33" vType="typeCar" speedFactor="1.00" vaporized=""/>
    <tripinfo id="WE_39" depart="39.00" departLane="wc_0" departPos="5.10" departSpeed="8.00" departDelay="2.00" arrival="316.90" arrivalLane="ce_0" arrivalPos="992.80" arrivalSpeed="8.00" duration="277.90" routeLength="1994.90" waitingTime="0.00" waitingCount="0" stopTime="0.00" timeLoss="28.52" rerouteNo="0" devices="tripinfo_WE_39" vType="typeCar" speedFactor="1.00" vaporized=""/>
    <tripinfo id="ES_34" depart="39.00" departLane="ec_0" departPos="5.10" departSpeed="8.00" departDelay="7.00" arrival="319.90" arrivalLane="cs_0" arrivalPos="992.80" arrivalSpeed="8.00" duration="280.90" routeLength="1993.94" waitingTime="0.00" waitingCount="0" stopTime="0.00" timeLoss="31.57" rerouteNo="0" devices="tripinfo_ES_34" vType="typeCar" speedFactor="1.00" vaporized=""/>
    <tripinfo id="WE_41" depart="41.00" departLane="wc_0" departPos="5.10" departSpeed="8.00" departDelay="3.00" arrival="322.50" arrivalLane="ce_0" arrivalPos="992.80" arrivalSpeed="8.00" duration="281.50" routeLength="1994.90" waitingTime="0.00" waitingCount="0" stopTime="0.00" timeLoss="32.14" rerouteNo="0" devices="tripinfo_WE_41" vType="typeCar" speedFactor="1.00" vaporized=""/>
    <tripinfo id="EW_36" depart="41.00" departLane="ec_0" departPos="5.10" departSpeed="8.00" departDelay="8.00" arrival="323.80" arrivalLane="cw_0" arrivalPos="992.80" arrivalSpeed="8.00" duration="282.80" routeLength="1994.90" waitingTime="0.00" waitingCount="0" stopTime="0.00" timeLoss="33.43" rerouteNo="0" devices="tripinfo_EW_36" vType="typeCar" speedFactor="1.00" vaporized=""/>
    <tripinfo id="WE_45" depart="43.00" departLane="wc_0" departPos="5.10" departSpeed="8.00" departDelay="4.00" arrival="326.90" arrivalLane="ce_0" arrivalPos="992.80" arrivalSpeed="8.00" duration="283.90" routeLength="1994.90" waitingTime="0.00" waitingCount="0" stopTime="0.00" timeLoss="34.54" rerouteNo="0" devices="tripinfo_WE_45" vType="typeCar" speedFactor="1.00" vaporized=""/>
    <tripinfo id="ES_38" depart="43.00" departLane="ec_0" departPos="5.10" departSpeed="8.00" departDelay="7.00" arrival="329.00" arrivalLane="cs_0" arrivalPos="992.80" arrivalSpeed="8.00" duration="286.00" routeLength="1993.94" waitingTime="0.00" waitingCount="0" stopTime="0.00" timeLoss="36.70" rerouteNo="0" devices="tripinfo_ES_38" vType="typeCar" speedFactor="1.00" vaporized=""/>
    <tripinfo id="EN_40" depart="45.00" departLane="ec_0" departPos="5.10" departSpeed="8.00" departDelay="8.00" arrival="332.30" arrivalLane="cn_0" arrivalPos="992.80" arrivalSpeed="8.00" duration="287.30" routeLength="1989.53" waitingTime="0.00" waitingCount="0" stopTime="0.00" timeLoss="38.34" rerouteNo="0" devices="tripinfo_EN_40" vType="typeCar" speedFactor="1.00" vaporized=""/>
    <tripinfo id="WE_46" depart="45.00" departLane="wc_0" departPos="5.10" departSpeed="8.00" departDelay="5.00" arrival="332.30" arrivalLane="ce_0" arrivalPos="992.80" arrivalSpeed="8.00" duration="287.30" routeLength="1994.90" waitingTime="0.00" waitingCount="0" stopTime="0.00" timeLoss="37.92" rerouteNo="0" devices="tripinfo_WE_46" vType="typeCar" speedFactor="1.00" vaporized=""/>
    <tripinfo id="WE_48" depart="47.00" departLane="wc_0" departPos="5.10" departSpeed="8.00" departDelay="5.00" arrival="336.30" arrivalLane="ce_0" arrivalPos="992.80" arrivalSpeed="8.00" duration="289.30" routeLength="1994.90" waitingTime="0.00" waitingCount="0" stopTime="0.00" timeLoss="39.86" rerouteNo="0" devices="tripinfo_WE_48" vType="typeCar" speedFactor="1.00" vaporized=""/>
    <tripinfo id="EW_42" depart="47.00" departLane="ec_0" departPos="5.10" departSpeed="8.00" departDelay="9.00" arrival="337.60" arrivalLane="cw_0" arrivalPos="992.80" arrivalSpeed="8.00" duration="290.60" routeLength="1994.90" waitingTime="0.00" waitingCount="0" stopTime="0.00" timeLoss="41.17" rerouteNo="0" devices="tripinfo_EW_42" vType="typeCar" speedFactor="1.00" vaporized=""/>
    <tripinfo id="WE_49" depart="49.00" departLane="wc_0" departPos="5.10" departSpeed="8.00" departDelay="6.00" arrival="339.60" arrivalLane="ce_0" arrivalPos="992.80" arrivalSpeed="8.00" duration="290.60" routeLength="1994.90" waitingTime="0.00" waitingCount="0" stopTime="0.00" timeLoss="41.18" rerouteNo="0" devices="tripinfo_WE_49" vType="typeCar" speedFactor="1.00" vaporized=""/>
    <tripinfo id="EN_43" depart="49.00" departLane="ec_0" departPos="5.10" departSpeed="8.00" departDelay="11.00" arrival="340.20" arrivalLane="cn_0" arrivalPos="992.80" arrivalSpeed="8.00" duration="291.20" routeLength="1989.53" waitingTime="0.00" waitingCount="0" stopTime="0.00" timeLoss="42.22" rerouteNo="0" devices="tripinfo_EN_43" vType="typeCar" speedFactor="1.00" vaporized=""/>
    <tripinfo id="WN_51" depart="51.00" departLane="wc_0" departPos="5.10" departSpeed="8.00" departDelay="7.00" arrival="344.10" arrivalLane="cn_0" arrivalPos="992.80" arrivalSpeed="8.00" duration="293.10" routeLength="1993.94" waitingTime="0.00" waitingCount="0" stopTime="0.00" timeLoss="43.80" rerouteNo="0" devices="tripinfo_WN_51" vType="typeCar" speedFactor="1.00" vaporized=""/>
    <tripinfo id="ES_44" depart="51.00" departLane="ec_0" departPos="5.10" departSpeed="8.00" departDelay="13.00" arrival="344.70" arrivalLane="cs_0" arrivalPos="992.80" arrivalSpeed="8.00" duration="293.70" routeLength="1993.94" waitingTime="0.00" waitingCount="0" stopTime="0.00" timeLoss="44.39" rerouteNo="0" devices="tripinfo_ES_44" vType="typeCar" speedFactor="1.00" vaporized=""/>
    <tripinfo id="EN_47" depart="53.00" departLane="ec_0" departPos="5.10" departSpeed="8.00" departDelay="13.00" arrival="348.20" arrivalLane="cn_0" arrivalPos="992.80" arrivalSpeed="8.00" duration="295.20" routeLength="1989.53" waitingTime="0.00" waitingCount="0" stopTime="0.00" timeLoss="46.20" rerouteNo="0" devices="tripinfo_EN_47" vType="typeCar" speedFactor="1.00" vaporized=""/>
    <tripinfo id="WS_52" depart="53.00" departLane="wc_0" departPos="5.10" departSpeed="8.00" departDelay="9.00" arrival="348.30" arrivalLane="cs_0" arrivalPos="992.80" arrivalSpeed="8.00" duration="295.30" routeLength="1989.53" waitingTime="0.00" waitingCount="0" stopTime="0.00" timeLoss="46.27" rerouteNo="0" devices="tripinfo_WS_52" vType="typeCar" speedFactor="1.00" vaporized=""/>
    <tripinfo id="EW_50" depart="55.00" departLane="ec_0" departPos="5.10" departSpeed="8.00" departDelay="12.00" arrival="352.90" arrivalLane="cw_0" arrivalPos="992.80" arrivalSpeed="8.00" duration="297.90" routeLength="1994.90" waitingTime="0.00" waitingCount="0" stopTime="0.00" timeLoss="48.50" rerouteNo="0" devices="tripinfo_EW_50" vType="typeCar" speedFactor="1.00" vaporized=""/>
    <tripinfo id="WE_54" depart="55.00" departLane="wc_0" departPos="5.10" departSpeed="8.00" departDelay="9.00" arrival="353.00" arrivalLane="ce_0" arrivalPos="992.80" arrivalSpeed="8.00" duration="298.00" routeLength="1994.90" waitingTime="0.00" waitingCount="0" stopTime="0.00" timeLoss="48.64" rerouteNo="0" devices="tripinfo_WE_54" vType="typeCar" speedFactor="1.00" vaporized=""/>
    <tripinfo id="WS_59" depart="57.00" departLane="wc_0" departPos="5.10" departSpeed="8.00" departDelay="7.00" arrival="356.40" arrivalLane="cs_0" arrivalPos="992.80" arrivalSpeed="8.00" duration="299.40" routeLength="1989.53" waitingTime="0.00" waitingCount="0" stopTime="0.00" timeLoss="50.45" rerouteNo="0" devices="tripinfo_WS_59" vType="typeCar" speedFactor="1.00" vaporized=""/>
    <tripinfo id="EW_53" depart="57.00" departLane="ec_0" departPos="5.10" departSpeed="8.00" departDelay="12.00" arrival="357.70" arrivalLane="cw_0" arrivalPos="992.80" arrivalSpeed="8.00" duration="300.70" routeLength="1994.90" waitingTime="0.00" waitingCount="0" stopTime="0.00" timeLoss="51.26" rerouteNo="0" devices="tripinfo_EW_53" vType="typeCar" speedFactor="1.00" vaporized=""/>
    <tripinfo id="WS_61" depart="59.00" departLane="wc_0" departPos="5.10" departSpeed="8.00" departDelay="7.00" arrival="360.60" arrivalLane="cs_0" arrivalPos="992.80" arrivalSpeed="8.00" duration="301.60" routeLength="1989.53" waitingTime="0.00" waitingCount="0" stopTime="0.00" timeLoss="52.59" rerouteNo="0" devices="tripinfo_WS_61" vType="typeCar" speedFactor="1.00" vaporized=""/>
    <tripinfo id="EW_55" depart="59.00" departLane="ec_0" departPos="5.10" departSpeed="8.00" departDelay="13.00" arrival="361.10" arrivalLane="cw_0" arrivalPos="992.80" arrivalSpeed="8.00" duration="302.10" routeLength="1994.90" waitingTime="0.00" waitingCount="0" stopTime="0.00" timeLoss="52.68" rerouteNo="0" devices="tripinfo_EW_55" vType="typeCar" speedFactor="1.00" vaporized=""/>
    <tripinfo id="EN_56" depart="61.00" departLane="ec_0" departPos="5.10" departSpeed="8.00" departDelay="15.00" arrival="364.50" arrivalLane="cn_0" arrivalPos="992.80" arrivalSpeed="8.00" duration="303.50" routeLength="1989.53" waitingTime="0.00" waitingCount="0" stopTime="0.00" timeLoss="54.56" rerouteNo="0" devices="tripinfo_EN_56" vType="typeCar" speedFactor="1.00" vaporized=""/>
    <tripinfo id="WE_62" depart="61.00" departLane="wc_0" departPos="5.10" departSpeed="8.00" departDelay="8.00" arrival="364.70" arrivalLane="ce_0" arrivalPos="992.80" arrivalSpeed="8.00" duration="303.70" routeLength="1994.90" waitingTime="0.00" waitingCount="0" stopTime="0.00" timeLoss="54.33" rerouteNo="0" devices="tripinfo_WE_62" vType="typeCar" speedFactor="1.00" vaporized=""/>
    <tripinfo id="WN_63" depart="63.00" departLane="wc_0" departPos="5.10" departSpeed="8.00" departDelay="10.00" arrival="368.80" arrivalLane="cn_0" arrivalPos="992.80" arrivalSpeed="8.00" duration="305.80" routeLength="1993.94" waitingTime="0.00" waitingCount="0" stopTime="0.00" timeLoss="56.45" rerouteNo="0" devices="tripinfo_WN_63" vType="typeCar" speedFactor="1.00" vaporized=""/>
    <tripinfo id="EN_57" depart="63.00" departLane="ec_0" departPos="5.10" departSpeed="8.00" departDelay="16.00" arrival="371.80" arrivalLane="cn_0" arrivalPos="992.80" arrivalSpeed="8.00" duration="308.80" routeLength="1989.53" waitingTime="0.00" waitingCount="0" stopTime="0.00" timeLoss="59.80" rerouteNo="0" devices="tripinfo_EN_57" vType="typeCar" speedFactor="1.00" vaporized=""/>
    <tripinfo id="WE_64" depart="65.00" departLane="wc_0" departPos="5.10" departSpeed="8.00" departDelay="11.00" arrival="373.90" arrivalLane="ce_0" arrivalPos="992.80" arrivalSpeed="8.00" duration="308.90" routeLength="1994.90" waitingTime="0.00" waitingCount="0" stopTime="0.00" timeLoss="59.46" rerouteNo="0" devices="tripinfo_WE_64" vType="typeCar" speedFactor="1.00" vaporized=""/>
    <tripinfo id="WS_65" depart="67.00" departLane="wc_0" departPos="5.10" departSpeed="8.00" departDelay="13.00" arrival="376.70" arrivalLane="cs_0" arrivalPos="992.80" arrivalSpeed="8.00" duration="309.70" routeLength="1989.53" waitingTime="0.00" waitingCount="0" stopTime="0.00" timeLoss="60.70" rerouteNo="0" devices="tripinfo_WS_65" vType="typeCar" speedFactor="1.00" vaporized=""/>
    <tripinfo id="EW_58" depart="65.00" departLane="ec_0" departPos="5.10" departSpeed="8.00" departDelay="17.00" arrival="376.80" arrivalLane="cw_0" arrivalPos="992.80" arrivalSpeed="8.00" duration="311.80" routeLength="1994.90" waitingTime="0.00" waitingCount="0" stopTime="0.00" timeLoss="62.38" rerouteNo="0" devices="tripinfo_EW_58" vType="typeCar" speedFactor="1.00" vaporized=""/>
    <tripinfo id="ES_60" depart="67.00" departLane="ec_0" departPos="5.10" departSpeed="8.00" departDelay="17.00" arrival="381.70" arrivalLane="cs_0" arrivalPos="992.80" arrivalSpeed="8.00" duration="314.70" routeLength="1993.94" waitingTime="0.00" waitingCount="0" stopTime="0.00" timeLoss="65.41" rerouteNo="0" devices="tripinfo_ES_60" vType="typeCar" speedFactor="1.00" vaporized=""/>
    <tripinfo id="WS_68" depart="69.00" departLane="wc_0" departPos="5.10" departSpeed="8.00" departDelay="8.00" arrival="384.10" arrivalLane="cs_0" arrivalPos="992.80" arrivalSpeed="8.00" duration="315.10" routeLength="1989.53" waitingTime="0.00" waitingCount="0" stopTime="0.00" timeLoss="66.15" rerouteNo="0" devices="tripinfo_WS_68" vType="typeCar" speedFactor="1.00" vaporized=""/>
    <tripinfo id="EW_66" depart="69.00" departLane="ec_0" departPos="5.10" departSpeed="8.00" departDelay="14.00" arrival="386.20" arrivalLane="cw_0" arrivalPos="992.80" arrivalSpeed="8.00" duration="317.20" routeLength="1994.90" waitingTime="0.00" waitingCount="0" stopTime="0.00" timeLoss="67.80" rerouteNo="0" devices="tripinfo_EW_66" vType="typeCar" speedFactor="1.00" vaporized=""/>
    <tripinfo id="ES_67" depart="71.00" departLane="ec_0" departPos="5.10" departSpeed="8.00" departDelay="12.00" arrival="389.70" arrivalLane="cs_0" arrivalPos="992.80" arrivalSpeed="8.00" duration="318.70" routeLength="1993.94" waitingTime="0.00" waitingCount="0" stopTime="0.00" timeLoss="69.36" rerouteNo="0" devices="tripinfo_ES_67" vType="typeCar" speedFactor="1.00" vaporized=""/>
    <tripinfo id="WN_69" depart="71.00" departLane="wc_0" departPos="5.10" departSpeed="8.00" departDelay="7.00" arrival="389.80" arrivalLane="cn_0" arrivalPos="992.80" arrivalSpeed="8.00" duration="318.80" routeLength="1993.94" waitingTime="0.00" waitingCount="0" stopTime="0.00" timeLoss="69.51" rerouteNo="0" devices="tripinfo_WN_69" vType="typeCar" speedFactor="1.00" vaporized=""/>
    <tripinfo id="WS_72" depart="73.00" departLane="wc_0" departPos="5.10" departSpeed="8.00" departDelay="7.00" arrival="393.70" arrivalLane="cs_0" arrivalPos="992.80" arrivalSpeed="8.00" duration="320.70" routeLength="1989.53" waitingTime="0.00" waitingCount="0" stopTime="0.00" timeLoss="71.73" rerouteNo="0" devices="tripinfo_WS_72" vType="typeCar" speedFactor="1.00" vaporized=""/>
    <tripinfo id="EW_70" depart="73.00" departLane="ec_0" departPos="5.10" departSpeed="8.00" departDelay="9.00" arrival="395.00" arrivalLane="cw_0" arrivalPos="992.80" arrivalSpeed="8.00" duration="322.00" routeLength="1994.90" waitingTime="0.00" waitingCount="0" stopTime="0.00" timeLoss="72.64" rerouteNo="0" devices="tripinfo_EW_70" vType="typeCar" speedFactor="1.00" vaporized=""/>
    <tripinfo id="WN_76" depart="75.00" departLane="wc_0" departPos="5.10" departSpeed="8.00" departDelay="3.00" arrival="398.80" arrivalLane="cn_0" arrivalPos="992.80" arrivalSpeed="8.00" duration="323.80" routeLength="1993.94" waitingTime="0.00" waitingCount="0" stopTime="0.00" timeLoss="74.46" rerouteNo="0" devices="tripinfo_WN_76" vType="typeCar" speedFactor="1.00" vaporized=""/>
    <tripinfo id="EW_71" depart="75.00" departLane="ec_0" departPos="5.10" departSpeed="8.00" departDelay="10.00" arrival="401.80" arrivalLane="cw_0" arrivalPos="992.80" arrivalSpeed="8.00" duration="326.80" routeLength="1994.90" waitingTime="0.00" waitingCount="0" stopTime="0.00" timeLoss="77.43" rerouteNo="0" devices="tripinfo_EW_71" vType="typeCar" speedFactor="1.00" vaporized=""/>