<?xml version="1.0" encoding="UTF-8"?>

<!-- generated on 日  5/15 23:48:13 2022 by Eclipse SUMO GUI Version 1.8.0
<configuration xmlns:xsi="http://www.w3.org/2001/XMLSchema-instance" xsi:noNamespaceSchemaLocation="http://sumo.dlr.de/xsd/sumoConfiguration.xsd">

    <input>
        <net-file value="net.net.xml"/>
        <route-files value="routes.rou.xml"/>
    </input>

    <output>
        <tripinfo-output value="raw_data/(1,1,0)tripinfo.xml"/>
    </output>

    <time>
        <begin value="0"/>
        <step-length value="0.1"/>
    </time>

    <report>
        <verbose value="false"/>
        <log value="log.txt"/>
        <duration-log.statistics value="true"/>
        <no-step-log value="true"/>
    </report>

    <traci_server>
        <remote-port value="56786"/>
    </traci_server>

    <gui_only>
        <tracker-interval value="0.1"/>
    </gui_only>

</configuration>
-->

<tripinfos xmlns:xsi="http://www.w3.org/2001/XMLSchema-instance" xsi:noNamespaceSchemaLocation="http://sumo.dlr.de/xsd/tripinfo_file.xsd">
    <tripinfo id="SE_1" depart="0.00" departLane="sc_0" departPos="5.10" departSpeed="8.00" departDelay="0.00" arrival="249.40" arrivalLane="ce_0" arrivalPos="992.80" arrivalSpeed="8.00" duration="249.40" routeLength="1989.53" waitingTime="0.00" waitingCount="0" stopTime="0.00" timeLoss="0.44" rerouteNo="0" devices="tripinfo_SE_1" vType="typeCar" speedFactor="1.00" vaporized=""/>
    <tripinfo id="ES_0" depart="0.00" departLane="ec_0" departPos="5.10" departSpeed="8.00" departDelay="0.00" arrival="249.60" arrivalLane="cs_0" arrivalPos="992.80" arrivalSpeed="8.00" duration="249.60" routeLength="1993.94" waitingTime="0.00" waitingCount="0" stopTime="0.00" timeLoss="0.31" rerouteNo="0" devices="tripinfo_ES_0" vType="typeCar" speedFactor="1.00" vaporized=""/>
    <tripinfo id="NS_4" depart="1.00" departLane="nc_0" departPos="5.10" departSpeed="8.00" departDelay="0.00" arrival="251.60" arrivalLane="cs_0" arrivalPos="992.80" arrivalSpeed="8.00" duration="250.60" routeLength="1994.90" waitingTime="0.00" waitingCount="0" stopTime="0.00" timeLoss="1.17" rerouteNo="0" devices="tripinfo_NS_4" vType="typeCar" speedFactor="1.00" vaporized=""/>
    <tripinfo id="EW_3" depart="2.00" departLane="ec_0" departPos="5.10" departSpeed="8.00" departDelay="1.00" arrival="253.30" arrivalLane="cw_0" arrivalPos="992.80" arrivalSpeed="8.00" duration="251.30" routeLength="1994.90" waitingTime="0.00" waitingCount="0" stopTime="0.00" timeLoss="1.86" rerouteNo="0" devices="tripinfo_EW_3" vType="typeCar" speedFactor="1.00" vaporized=""/>
    <tripinfo id="WE_2" depart="1.00" departLane="wc_0" departPos="5.10" departSpeed="8.00" departDelay="0.00" arrival="254.10" arrivalLane="ce_0" arrivalPos="992.80" arrivalSpeed="8.00" duration="253.10" routeLength="1994.90" waitingTime="0.00" waitingCount="0" stopTime="0.00" timeLoss="3.68" rerouteNo="0" devices="tripinfo_WE_2" vType="typeCar" speedFactor="1.00" vaporized=""/>
    <tripinfo id="EN_8" depart="4.00" departLane="ec_0" departPos="5.10" departSpeed="8.00" departDelay="1.00" arrival="255.70" arrivalLane="cn_0" arrivalPos="992.80" arrivalSpeed="8.00" duration="251.70" routeLength="1989.53" waitingTime="0.00" waitingCount="0" stopTime="0.00" timeLoss="2.69" rerouteNo="0" devices="tripinfo_EN_8" vType="typeCar" speedFactor="1.00" vaporized=""/>
    <tripinfo id="NE_5" depart="3.00" departLane="nc_0" departPos="5.10" departSpeed="8.00" departDelay="2.00" arrival="256.10" arrivalLane="ce_0" arrivalPos="992.80" arrivalSpeed="8.00" duration="253.10" routeLength="1993.94" waitingTime="0.00" waitingCount="0" stopTime="0.00" timeLoss="3.76" rerouteNo="0" devices="tripinfo_NE_5" vType="typeCar" speedFactor="1.00" vaporized=""/>
    <tripinfo id="WE_6" depart="3.00" departLane="wc_0" departPos="5.10" departSpeed="8.00" departDelay="1.00" arrival="258.20" arrivalLane="ce_0" arrivalPos="992.80" arrivalSpeed="8.00" duration="255.20" routeLength="1994.90" waitingTime="0.00" waitingCount="0" stopTime="0.00" timeLoss="5.77" rerouteNo="0" devices="tripinfo_WE_6" vType="typeCar" speedFactor="1.00" vaporized=""/>
    <tripinfo id="NW_9" depart="5.00" departLane="nc_0" departPos="5.10" departSpeed="8.00" departDelay="2.00" arrival="258.60" arrivalLane="cw_0" arrivalPos="992.80" arrivalSpeed="8.00" duration="253.60" routeLength="1989.53" waitingTime="0.00" waitingCount="0" stopTime="0.00" timeLoss="4.63" rerouteNo="0" devices="tripinfo_NW_9" vType="typeCar" speedFactor="1.00" vaporized=""/>
    <tripinfo id="SN_12" depart="5.00" departLane="sc_0" departPos="5.10" departSpeed="8.00" departDelay="0.00" arrival="260.30" arrivalLane="cn_0" arrivalPos="992.80" arrivalSpeed="8.00" duration="255.30" routeLength="1994.90" waitingTime="0.00" waitingCount="0" stopTime="0.00" timeLoss="5.91" rerouteNo="0" devices="tripinfo_SN_12" vType="typeCar" speedFactor="1.00" vaporized=""/>
    <tripinfo id="WS_7" depart="5.00" departLane="wc_0" departPos="5.10" departSpeed="8.00" departDelay="2.00" arrival="261.00" arrivalLane="cs_0" arrivalPos="992.80" arrivalSpeed="8.00" duration="256.00" routeLength="1989.53" waitingTime="0.00" waitingCount="0" stopTime="0.00" timeLoss="6.96" rerouteNo="0" devices="tripinfo_WS_7" vType="typeCar" speedFactor="1.00" vaporized=""/>
    <tripinfo id="EW_10" depart="6.00" departLane="ec_0" departPos="5.10" departSpeed="8.00" departDelay="2.00" arrival="263.30" arrivalLane="cw_0" arrivalPos="992.80" arrivalSpeed="8.00" duration="257.30" routeLength="1994.90" waitingTime="0.00" waitingCount="0" stopTime="0.00" timeLoss="7.88" rerouteNo="0" devices="tripinfo_EW_10" vType="typeCar" speedFactor="1.00" vaporized=""/>
    <tripinfo id="NS_11" depart="7.00" departLane="nc_0" departPos="5.10" departSpeed="8.00" departDelay="2.00" arrival="265.50" arrivalLane="cs_0" arrivalPos="992.80" arrivalSpeed="8.00" duration="258.50" routeLength="1994.90" waitingTime="0.00" waitingCount="0" stopTime="0.00" timeLoss="9.12" rerouteNo="0" devices="tripinfo_NS_11" vType="typeCar" speedFactor="1.00" vaporized=""/>
    <tripinfo id="WE_15" depart="7.00" departLane="wc_0" departPos="5.10" departSpeed="8.00" departDelay="0.00" arrival="268.20" arrivalLane="ce_0" arrivalPos="992.80" arrivalSpeed="8.00" duration="261.20" routeLength="1994.90" waitingTime="0.00" waitingCount="0" stopTime="0.00" timeLoss="11.84" rerouteNo="0" devices="tripinfo_WE_15" vType="typeCar" speedFactor="1.00" vaporized=""/>
    <tripinfo id="SW_18" depart="8.00" departLane="sc_0" departPos="5.10" departSpeed="8.00" departDelay="0.00" arrival="270.70" arrivalLane="cw_0" arrivalPos="992.80" arrivalSpeed="8.00" duration="262.70" routeLength="1993.94" waitingTime="0.00" waitingCount="0" stopTime="0.00" timeLoss="13.42" rerouteNo="0" devices="tripinfo_SW_18" vType="typeCar" speedFactor="1.00" vaporized=""/>
    <tripinfo id="EW_13" depart="8.00" departLane="ec_0" departPos="5.10" departSpeed="8.00" departDelay="2.00" arrival="272.90" arrivalLane="cw_0" arrivalPos="992.80" arrivalSpeed="8.00" duration="264.90" routeLength="1994.90" waitingTime="0.00" waitingCount="0" stopTime="0.00" timeLoss="15.48" rerouteNo="0" devices="tripinfo_EW_13" vType="typeCar" speedFactor="1.00" vaporized=""/>
    <tripinfo id="NS_14" depart="9.00" departLane="nc_0" departPos="5.10" departSpeed="8.00" departDelay="3.00" arrival="275.70" arrivalLane="cs_0" arrivalPos="992.80" arrivalSpeed="8.00" duration="266.70" routeLength="1994.90" waitingTime="0.00" waitingCount="0" stopTime="0.00" timeLoss="17.31" rerouteNo="0" devices="tripinfo_NS_14" vType="typeCar" speedFactor="1.00" vaporized=""/>
    <tripinfo id="EW_17" depart="10.00" departLane="ec_0" departPos="5.10" departSpeed="8.00" departDelay="2.00" arrival="277.60" arrivalLane="cw_0" arrivalPos="992.80" arrivalSpeed="8.00" duration="267.60" routeLength="1994.90" waitingTime="0.00" waitingCount="0" stopTime="0.00" timeLoss="18.25" rerouteNo="0" devices="tripinfo_EW_17" vType="typeCar" speedFactor="1.00" vaporized=""/>
    <tripinfo id="WS_16" depart="9.00" departLane="wc_0" departPos="5.10" departSpeed="8.00" departDelay="2.00" arrival="278.70" arrivalLane="cs_0" arrivalPos="992.80" arrivalSpeed="8.00" duration="269.70" routeLength="1989.53" waitingTime="0.00" waitingCount="0" stopTime="0.00" timeLoss="20.68" rerouteNo="0" devices="tripinfo_WS_16" vType="typeCar" speedFactor="1.00" vaporized=""/>
    <tripinfo id="SN_24" depart="12.00" departLane="sc_0" departPos="5.10" departSpeed="8.00" departDelay="0.00" arrival="280.00" arrivalLane="cn_0" arrivalPos="992.80" arrivalSpeed="8.00" duration="268.00" routeLength="1994.90" waitingTime="0.00" waitingCount="0" stopTime="0.00" timeLoss="18.56" rerouteNo="0" devices="tripinfo_SN_24" vType="typeCar" speedFactor="1.00" vaporized=""/>
    <tripinfo id="NW_23" depart="11.00" departLane="nc_0" departPos="5.10" departSpeed="8.00" departDelay="0.00" arrival="280.60" arrivalLane="cw_0" arrivalPos="992.80" arrivalSpeed="8.00" duration="269.60" routeLength="1989.53" waitingTime="0.00" waitingCount="0" stopTime="0.00" timeLoss="20.58" rerouteNo="0" devices="tripinfo_NW_23" vType="typeCar" speedFactor="1.00" vaporized=""/>
    <tripinfo id="WE_19" depart="11.00" departLane="wc_0" departPos="5.10" departSpeed="8.00" departDelay="2.00" arrival="283.00" arrivalLane="ce_0" arrivalPos="992.80" arrivalSpeed="8.00" duration="272.00" routeLength="1994.90" waitingTime="0.00" waitingCount="0" stopTime="0.00" timeLoss="22.56" rerouteNo="0" devices="tripinfo_WE_19" vType="typeCar" speedFactor="1.00" vaporized=""/>
    <tripinfo id="EW_21" depart="12.00" departLane="ec_0" departPos="5.10" departSpeed="8.00" departDelay="3.00" arrival="283.10" arrivalLane="cw_0" arrivalPos="992.80" arrivalSpeed="8.00" duration="271.10" routeLength="1994.90" waitingTime="0.00" waitingCount="0" stopTime="0.00" timeLoss="21.67" rerouteNo="0" devices="tripinfo_EW_21" vType="typeCar" speedFactor="1.00" vaporized=""/>
    <tripinfo id="SE_27" depart="14.00" departLane="sc_0" departPos="5.10" departSpeed="8.00" departDelay="1.00" arrival="285.40" arrivalLane="ce_0" arrivalPos="992.80" arrivalSpeed="8.00" duration="271.40" routeLength="1989.53" waitingTime="0.00" waitingCount="0" stopTime="0.00" timeLoss="22.40" rerouteNo="0" devices="tripinfo_SE_27" vType="typeCar" speedFactor="1.00" vaporized=""/>
    <tripinfo id="NS_26" depart="13.00" departLane="nc_0" departPos="5.10" departSpeed="8.00" departDelay="0.00" arrival="286.00" arrivalLane="cs_0" arrivalPos="992.80" arrivalSpeed="8.00" duration="273.00" routeLength="1994.90" waitingTime="0.00" waitingCount="0" stopTime="0.00" timeLoss="23.65" rerouteNo="0" devices="tripinfo_NS_26" vType="typeCar" speedFactor="1.00" vaporized=""/>
    <tripinfo id="WS_20" depart="13.00" departLane="wc_0" departPos="5.10" departSpeed="8.00" departDelay="4.00" arrival="288.10" arrivalLane="cs_0" arrivalPos="992.80" arrivalSpeed="8.00" duration="275.10" routeLength="1989.53" waitingTime="0.00" waitingCount="0" stopTime="0.00" timeLoss="26.08" rerouteNo="0" devices="tripinfo_WS_20" vType="typeCar" speedFactor="1.00" vaporized=""/>
    <tripinfo id="EW_29" depart="14.00" departLane="ec_0" departPos="5.10" departSpeed="8.00" departDelay="0.00" arrival="288.10" arrivalLane="cw_0" arrivalPos="992.80" arrivalSpeed="8.00" duration="274.10" routeLength="1994.90" waitingTime="0.00" waitingCount="0" stopTime="0.00" timeLoss="24.67" rerouteNo="0" devices="tripinfo_EW_29" vType="typeCar" speedFactor="1.00" vaporized=""/>
    <tripinfo id="SW_28" depart="16.00" departLane="sc_0" departPos="5.10" departSpeed="8.00" departDelay="3.00" arrival="290.30" arrivalLane="cw_0" arrivalPos="992.80" arrivalSpeed="8.00" duration="274.30" routeLength="1993.94" waitingTime="0.00" waitingCount="0" stopTime="0.00" timeLoss="24.96" rerouteNo="0" devices="tripinfo_SW_28" vType="typeCar" speedFactor="1.00" vaporized=""/>
    <tripinfo id="WN_22" depart="15.00" departLane="wc_0" departPos="5.10" departSpeed="8.00" departDelay="5.00" arrival="293.50" arrivalLane="cn_0" arrivalPos="992.80" arrivalSpeed="8.00" duration="278.50" routeLength="1993.94" waitingTime="0.00" waitingCount="0" stopTime="0.00" timeLoss="29.18" rerouteNo="0" devices="tripinfo_WN_22" vType="typeCar" speedFactor="1.00" vaporized=""/>
    <tripinfo id="NW_36" depart="17.00" departLane="nc_0" departPos="5.10" departSpeed="8.00" departDelay="0.00" arrival="293.50" arrivalLane="cw_0" arrivalPos="992.80" arrivalSpeed="8.00" duration="276.50" routeLength="1989.53" waitingTime="0.00" waitingCount="0" stopTime="0.00" timeLoss="27.49" rerouteNo="0" devices="tripinfo_NW_36" vType="typeCar" speedFactor="1.00" vaporized=""/>
    <tripinfo id="SW_30" depart="18.00" departLane="sc_0" departPos="5.10" departSpeed="8.00" departDelay="4.00" arrival="296.10" arrivalLane="cw_0" arrivalPos="992.80" arrivalSpeed="8.00" duration="278.10" routeLength="1993.94" waitingTime="0.00" waitingCount="0" stopTime="0.00" timeLoss="28.78" rerouteNo="0" devices="tripinfo_SW_30" vType="typeCar" speedFactor="1.00" vaporized=""/>
    <tripinfo id="EN_32" depart="16.00" departLane="ec_0" departPos="5.10" departSpeed="8.00" departDelay="0.00" arrival="296.80" arrivalLane="cn_0" arrivalPos="992.80" arrivalSpeed="8.00" duration="280.80" routeLength="1989.53" waitingTime="0.00" waitingCount="0" stopTime="0.00" timeLoss="31.80" rerouteNo="0" devices="tripinfo_EN_32" vType="typeCar" speedFactor="1.00" vaporized=""/>
    <tripinfo id="NE_39" depart="19.00" departLane="nc_0" departPos="5.10" departSpeed="8.00" departDelay="0.00" arrival="297.90" arrivalLane="ce_0" arrivalPos="992.80" arrivalSpeed="8.00" duration="278.90" routeLength="1993.94" waitingTime="0.00" waitingCount="0" stopTime="0.00" timeLoss="29.54" rerouteNo="0" devices="tripinfo_NE_39" vType="typeCar" speedFactor="1.00" vaporized=""/>
    <tripinfo id="WE_25" depart="17.00" departLane="wc_0" departPos="5.10" departSpeed="8.00" departDelay="4.00" arrival="300.20" arrivalLane="ce_0" arrivalPos="992.80" arrivalSpeed="8.00" duration="283.20" routeLength="1994.90" waitingTime="0.00" waitingCount="0" stopTime="0.00" timeLoss="33.80" rerouteNo="0" devices="tripinfo_WE_25" vType="typeCar" speedFactor="1.00" vaporized=""/>
    <tripinfo id="EW_34" depart="18.00" departLane="ec_0" departPos="5.10" departSpeed="8.00" departDelay="1.00" arrival="300.70" arrivalLane="cw_0" arrivalPos="992.80" arrivalSpeed="8.00" duration="282.70" routeLength="1994.90" waitingTime="0.00" waitingCount="0" stopTime="0.00" timeLoss="33.28" rerouteNo="0" devices="tripinfo_EW_34" vType="typeCar" speedFactor="1.00" vaporized=""/>
    <tripinfo id="SN_33" depart="20.00" departLane="sc_0" departPos="5.10" departSpeed="8.00" departDelay="4.00" arrival="303.40" arrivalLane="cn_0" arrivalPos="992.80" arrivalSpeed="8.00" duration="283.40" routeLength="1994.90" waitingTime="0.00" waitingCount="0" stopTime="0.00" timeLoss="34.00" rerouteNo="0" devices="tripinfo_SN_33" vType="typeCar" speedFactor="1.00" vaporized=""/>
    <tripinfo id="NW_40" depart="21.00" departLane="nc_0" departPos="5.10" departSpeed="8.00" departDelay="2.00" arrival="304.10" arrivalLane="cw_0" arrivalPos="992.80" arrivalSpeed="8.00" duration="283.10" routeLength="1989.53" waitingTime="0.00" waitingCount="0" stopTime="0.00" timeLoss="34.11" rerouteNo="0" devices="tripinfo_NW_40" vType="typeCar" speedFactor="1.00" vaporized=""/>
    <tripinfo id="WE_31" depart="19.00" departLane="wc_0" departPos="5.10" departSpeed="8.00" departDelay="3.00" arrival="305.60" arrivalLane="ce_0" arrivalPos="992.80" arrivalSpeed="8.00" duration="286.60" routeLength="1994.90" waitingTime="0.00" waitingCount="0" stopTime="0.00" timeLoss="37.18" rerouteNo="0" devices="tripinfo_WE_31" vType="typeCar" speedFactor="1.00" vaporized=""/>
    <tripinfo id="EN_35" depart="20.00" departLane="ec_0" departPos="5.10" departSpeed="8.00" departDelay="3.00" arrival="306.90" arrivalLane="cn_0" arrivalPos="992.80" arrivalSpeed="8.00" duration="286.90" routeLength="1989.53" waitingTime="0.00" waitingCount="0" stopTime="0.00" timeLoss="37.88" rerouteNo="0" devices="tripinfo_EN_35" vType="typeCar" speedFactor="1.00" vaporized=""/>
    <tripinfo id="SW_37" depart="22.00" departLane="sc_0" departPos="5.10" departSpeed="8.00" departDelay="5.00" arrival="308.70" arrivalLane="cw_0" arrivalPos="992.80" arrivalSpeed="8.00" duration="286.70" routeLength="1993.94" waitingTime="0.00" waitingCount="0" stopTime="0.00" timeLoss="37.39" rerouteNo="0" devices="tripinfo_SW_37" vType="typeCar" speedFactor="1.00" vaporized=""/>
    <tripinfo id="NE_44" depart="23.00" departLane="nc_0" departPos="5.10" departSpeed="8.00" departDelay="2.00" arrival="309.20" arrivalLane="ce_0" arrivalPos="992.80" arrivalSpeed="8.00" duration="286.20" routeLength="1993.94" waitingTime="0.00" waitingCount="0" stopTime="0.00" timeLoss="36.90" rerouteNo="0" devices="tripinfo_NE_44" vType="typeCar" speedFactor="1.00" vaporized=""/>
    <tripinfo id="EN_42" depart="22.00" departLane="ec_0" departPos="5.10" departSpeed="8.00" departDelay="2.00" arrival="310.20" arrivalLane="cn_0" arrivalPos="992.80" arrivalSpeed="8.00" duration="288.20" routeLength="1989.53" waitingTime="0.00" waitingCount="0" stopTime="0.00" timeLoss="39.19" rerouteNo="0" devices="tripinfo_EN_42" vType="typeCar" speedFactor="1.00" vaporized=""/>
    <tripinfo id="WE_38" depart="21.00" departLane="wc_0" departPos="5.10" departSpeed="8.00" departDelay="2.00" arrival="311.70" arrivalLane="ce_0" arrivalPos="992.80" arrivalSpeed="8.00" duration="290.70" routeLength="1994.90" waitingTime="0.00" waitingCount="0" stopTime="0.00" timeLoss="41.31" rerouteNo="0" devices="tripinfo_WE_38" vType="typeCar" speedFactor="1.00" vaporized=""/>
    <tripinfo id="SW_41" depart="24.00" departLane="sc_0" departPos="5.10" departSpeed="8.00" departDelay="5.00" arrival="314.90" arrivalLane="cw_0" arrivalPos="992.80" arrivalSpeed="8.00" duration="290.90" routeLength="1993.94" waitingTime="0.00" waitingCount="0" stopTime="0.00" timeLoss="41.62" rerouteNo="0" devices="tripinfo_SW_41" vType="typeCar" speedFactor="1.00" vaporized=""/>
    <tripinfo id="NS_45" depart="25.00" departLane="nc_0" departPos="5.10" departSpeed="8.00" departDelay="3.00" arrival="317.10" arrivalLane="cs_0" arrivalPos="992.80" arrivalSpeed="8.00" duration="292.10" routeLength="1994.90" waitingTime="0.00" waitingCount="0" stopTime="0.00" timeLoss="42.69" rerouteNo="0" devices="tripinfo_NS_45" vType="typeCar" speedFactor="1.00" vaporized=""/>
    <tripinfo id="WE_47" depart="23.00" departLane="wc_0" departPos="5.10" departSpeed="8.00" departDelay="0.00" arrival="321.20" arrivalLane="ce_0" arrivalPos="992.80" arrivalSpeed="8.00" duration="298.20" routeLength="1994.90" waitingTime="0.00" waitingCount="0" stopTime="0.00" timeLoss="48.83" rerouteNo="0" devices="tripinfo_WE_47" vType="typeCar" speedFactor="1.00" vaporized=""/>
    <tripinfo id="ES_43" depart="24.00" departLane="ec_0" departPos="5.10" departSpeed="8.00" departDelay="3.00" arrival="323.50" arrivalLane="cs_0" arrivalPos="992.80" arrivalSpeed="8.00" duration="299.50" routeLength="1993.94" waitingTime="0.00" waitingCount="0" stopTime="0.00" timeLoss="50.14" rerouteNo="0" devices="tripinfo_ES_43" vType="typeCar" speedFactor="1.00" vaporized=""/>
    <tripinfo id="SN_46" depart="26.00" departLane="sc_0" departPos="5.10" departSpeed="8.00" departDelay="4.00" arrival="326.40" arrivalLane="cn_0" arrivalPos="992.80" arrivalSpeed="8.00" duration="300.40" routeLength="1994.90" waitingTime="0.00" waitingCount="0" stopTime="0.00" timeLoss="51.02" rerouteNo="0" devices="tripinfo_SN_46" vType="typeCar" speedFactor="1.00" vaporized=""/>
    <tripinfo id="NS_51" depart="27.00" departLane="nc_0" departPos="5.10" departSpeed="8.00" departDelay="3.00" arrival="327.50" arrivalLane="cs_0" arrivalPos="992.80" arrivalSpeed="8.00" duration="300.50" routeLength="1994.90" waitingTime="0.00" waitingCount="0" stopTime="0.00" timeLoss="51.15" rerouteNo="0" devices="tripinfo_NS_51" vType="typeCar" speedFactor="1.00" vaporized=""/>
    <tripinfo id="WE_50" depart="25.00" departLane="wc_0" departPos="5.10" departSpeed="8.00" departDelay="1.00" arrival="330.30" arrivalLane="ce_0" arrivalPos="992.80" arrivalSpeed="8.00" duration="305.30" routeLength="1994.90" waitingTime="0.00" waitingCount="0" stopTime="0.00" timeLoss="55.91" rerouteNo="0" devices="tripinfo_WE_50" vType="typeCar" speedFactor="1.00" vaporized=""/>
    <tripinfo id="ES_48" depart="26.00" departLane="ec_0" departPos="5.10" departSpeed="8.00" departDelay="3.00" arrival="333.40" arrivalLane="cs_0" arrivalPos="992.80" arrivalSpeed="8.00" duration="307.40" routeLength="1993.94" waitingTime="0.00" waitingCount="0" stopTime="0.00" timeLoss="58.05" rerouteNo="0" devices="tripinfo_ES_48" vType="typeCar" speedFactor="1.00" vaporized=""/>
    <tripinfo id="SE_49" depart="28.00" departLane="sc_0" departPos="5.10" departSpeed="8.00" departDelay="5.00" arrival="334.30" arrivalLane="ce_0" arrivalPos="992.80" arrivalSpeed="8.00" duration="306.30" routeLength="1989.53" waitingTime="0.00" waitingCount="0" stopTime="0.00" timeLoss="57.34" rerouteNo="0" devices="tripinfo_SE_49" vType="typeCar" speedFactor="1.00" vaporized=""/>
    <tripinfo id="NE_52" depart="29.00" departLane="nc_0" departPos="5.10" departSpeed="8.00" departDelay="5.00" arrival="337.50" arrivalLane="ce_0" arrivalPos="992.80" arrivalSpeed="8.00" duration="308.50" routeLength="1993.94" waitingTime="0.00" waitingCount="0" stopTime="0.00" timeLoss="59.19" rerouteNo="0" devices="tripinfo_NE_52" vType="typeCar" speedFactor="1.00" vaporized=""/>
    <tripinfo id="WE_59" depart="28.00" departLane="wc_0" departPos="5.10" departSpeed="8.00" departDelay="0.00" arrival="340.20" arrivalLane="ce_0" arrivalPos="992.80" arrivalSpeed="8.00" duration="312.20" routeLength="1994.90" waitingTime="0.00" waitingCount="0" stopTime="0.00" timeLoss="62.81" rerouteNo="0" devices="tripinfo_WE_59" vType="typeCar" speedFactor="1.00" vaporized=""/>
    <tripinfo id="ES_54" depart="28.00" departLane="ec_0" departPos="5.10" departSpeed="8.00" departDelay="2.00" arrival="344.30" arrivalLane="cs_0" arrivalPos="992.80" arrivalSpeed="8.00" duration="316.30" routeLength="1993.94" waitingTime="0.00" waitingCount="0" stopTime="0.00" timeLoss="66.95" rerouteNo="0" devices="tripinfo_ES_54" vType="typeCar" speedFactor="1.00" vaporized=""/>
    <tripinfo id="NS_55" depart="31.00" departLane="nc_0" departPos="5.10" departSpeed="8.00" departDelay="5.00" arrival="347.00" arrivalLane="cs_0" arrivalPos="992.80" arrivalSpeed="8.00" duration="316.00" routeLength="1994.90" waitingTime="0.00" waitingCount="0" stopTime="0.00" timeLoss="66.59" rerouteNo="0" devices="tripinfo_NS_55" vType="typeCar" speedFactor="1.00" vaporized=""/>
    <tripinfo id="SN_53" depart="30.00" departLane="sc_0" departPos="5.10" departSpeed="8.00" departDelay="5.00" arrival="347.40" arrivalLane="cn_0" arrivalPos="992.80" arrivalSpeed="8.00" duration="317.40" routeLength="1994.90" waitingTime="0.00" waitingCount="0" stopTime="0.00" timeLoss="68.03" rerouteNo="0" devices="tripinfo_SN_53" vType="typeCar" speedFactor="1.00" vaporized=""/>
    <tripinfo id="WN_60" depart="30.00" departLane="wc_0" departPos="5.10" departSpeed="8.00" departDelay="2.00" arrival="351.20" arrivalLane="cn_0" arrivalPos="992.80" arrivalSpeed="8.00" duration="321.20" routeLength="1993.94" waitingTime="0.00" waitingCount="0" stopTime="0.00" timeLoss="71.84" rerouteNo="0" devices="tripinfo_WN_60" vType="typeCar" speedFactor="1.00" vaporized=""/>
    <tripinfo id="EN_62" depart="30.00" departLane="ec_0" departPos="5.10" departSpeed="8.00" departDelay="1.00" arrival="353.80" arrivalLane="cn_0" arrivalPos="992.80" arrivalSpeed="8.00" duration="323.80" routeLength="1989.53" waitingTime="0.00" waitingCount="0" stopTime="0.00" timeLoss="74.79" rerouteNo="0" devices="tripinfo_EN_62" vType="typeCar" speedFactor="1.00" vaporized=""/>
    <tripinfo id="SN_56" depart="32.00" departLane="sc_0" departPos="5.10" departSpeed="8.00" departDelay="6.00" arrival="357.10" arrivalLane="cn_0" arrivalPos="992.80" arrivalSpeed="8.00" duration="325.10" routeLength="1994.90" waitingTime="0.00" waitingCount="0" stopTime="0.00" timeLoss="75.67" rerouteNo="0" devices="tripinfo_SN_56" vType="typeCar" speedFactor="1.00" vaporized=""/>
    <tripinfo id="NE_61" depart="33.00" departLane="nc_0" departPos="5.10" departSpeed="8.00" departDelay="5.00" arrival="360.40" arrivalLane="ce_0" arrivalPos="992.80" arrivalSpeed="8.00" duration="327.40" routeLength="1993.94" waitingTime="0.00" waitingCount="0" stopTime="0.00" timeLoss="78.08" rerouteNo="0" devices="tripinfo_NE_61" vType="typeCar" speedFactor="1.00" vaporized=""/>
    <tripinfo id="WE_67" depart="32.00" departLane="wc_0" departPos="5.10" departSpeed="8.00" departDelay="0.00" arrival="365.20" arrivalLane="ce_0" arrivalPos="992.80" arrivalSpeed="8.00" duration="333.20" routeLength="1994.90" waitingTime="0.00" waitingCount="0" stopTime="0.00" timeLoss="83.83" rerouteNo="0" devices="tripinfo_WE_67" vType="typeCar" speedFactor="1.00" vaporized=""/>
    <tripinfo id="ES_63" depart="32.00" departLane="ec_0" departPos="5.10" departSpeed="8.00" departDelay="3.00" arrival="367.60" arrivalLane="cs_0" arrivalPos="992.80" arrivalSpeed="8.00" duration="335.60" routeLength="1993.94" waitingTime="0.00" waitingCount="0" stopTime="0.00" timeLoss="86.31" rerouteNo="0" devices="tripinfo_ES_63" vType="typeCar" speedFactor="1.00" vaporized=""/>
    <tripinfo id="SE_57" depart="34.00" departLane="sc_0" departPos="5.10" departSpeed="8.00" departDelay="7.00" arrival="368.90" arrivalLane="ce_0" arrivalPos="992.80" arrivalSpeed="8.00" duration="334.90" routeLength="1989.53" waitingTime="0.00" waitingCount="0" stopTime="0.00" timeLoss="85.92" rerouteNo="0" devices="tripinfo_SE_57" vType="typeCar" speedFactor="1.00" vaporized=""/>
    <tripinfo id="NS_69" depart="35.00" departLane="nc_0" departPos="5.10" departSpeed="8.00" departDelay="3.00" arrival="372.60" arrivalLane="cs_0" arrivalPos="992.80" arrivalSpeed="8.00" duration="337.60" routeLength="1994.90" waitingTime="0.00" waitingCount="0" stopTime="0.00" timeLoss="88.19" rerouteNo="0" devices="tripinfo_NS_69" vType="typeCar" speedFactor="1.00" vaporized=""/>
    <tripinfo id="EW_64" depart="34.00" departLane="ec_0" departPos="5.10" departSpeed="8.00" departDelay="4.00" arrival="375.30" arrivalLane="cw_0" arrivalPos="992.80" arrivalSpeed="8.00" duration="341.30" routeLength="1994.90" waitingTime="0.00" waitingCount="0" stopTime="0.00" timeLoss="91.92" rerouteNo="0" devices="tripinfo_EW_64" vType="typeCar" speedFactor="1.00" vaporized=""/>
    <tripinfo id="WS_71" depart="34.00" departLane="wc_0" departPos="5.10" departSpeed="8.00" departDelay="1.00" arrival="376.40" arrivalLane="cs_0" arrivalPos="992.80" arrivalSpeed="8.00" duration="342.40" routeLength="1989.53" waitingTime="0.00" waitingCount="0" stopTime="0.00" timeLoss="93.41" rerouteNo="0" devices="tripinfo_WS_71" vType="typeCar" speedFactor="1.00" vaporized=""/>
    <tripinfo id="SW_58" depart="36.00" departLane="sc_0" departPos="5.10" departSpeed="8.00" departDelay="9.00" arrival="379.30" arrivalLane="cw_0" arrivalPos="992.80" arrivalSpeed="8.00" duration="343.30" routeLength="1993.94" waitingTime="0.00" waitingCount="0" stopTime="0.00" timeLoss="94.01" rerouteNo="0" devices="tripinfo_SW_58" vType="typeCar" speedFactor="1.00" vaporized=""/>
    <tripinfo id="NS_72" depart="37.00" departLane="nc_0" departPos="5.10" departSpeed="8.00" departDelay="4.00" arrival="382.70" arrivalLane="cs_0" arrivalPos="992.80" arrivalSpeed="8.00" duration="345.70" routeLength="1994.90" waitingTime="0.00" waitingCount="0" stopTime="0.00" timeLoss="96.31" rerouteNo="0" devices="tripinfo_NS_72" vType="typeCar" speedFactor="1.00" vaporized=""/>
    <tripinfo id="EW_68" depart="36.00" departLane="ec_0" departPos="5.10" departSpeed="8.00" departDelay="4.00" arrival="385.50" arrivalLane="cw_0" arrivalPos="992.80" arrivalSpeed="8.00" duration="349.50" routeLength="1994.90" waitingTime="0.00" waitingCount="0" stopTime="0.00" timeLoss="100.13" rerouteNo="0" devices="tripinfo_EW_68" vType="typeCar" speedFactor="1.00" vaporized=""/>
    <tripinfo id="WE_75" depart="36.00" departLane="wc_0" departPos="5.10" departSpeed="8.00" departDelay="1.00" arrival="385.60" arrivalLane="ce_0" arrivalPos="992.80" arrivalSpeed="8.00" duration="349.60" routeLength="1994.90" waitingTime="0.00" waitingCount="0" stopTime="0.00" timeLoss="100.24" rerouteNo="0" devices="tripinfo_WE_75" vType="typeCar" speedFactor="1.00" vaporized=""/>
    <tripinfo id="NW_73" depart="39.00" departLane="nc_0" departPos="5.10" departSpeed="8.00" departDelay="6.00" arrival="388.20" arrivalLane="cw_0" arrivalPos="992.80" arrivalSpeed="8.00" duration="349.20" routeLength="1989.53" waitingTime="0.00" waitingCount="0" stopTime="0.00" timeLoss="100.21" rerouteNo="0" devices="tripinfo_NW_73" vType="typeCar" speedFactor="1.00" vaporized=""/>
    <tripinfo id="SN_65" depart="38.00" departLane="sc_0" departPos="5.10" departSpeed="8.00" departDelay="8.00" arrival="390.80" arrivalLane="cn_0" arrivalPos="992.80" arrivalSpeed="8.00" duration="352.80" routeLength="1994.90" waitingTime="0.00" waitingCount="0" stopTime="0.00" timeLoss="103.40" rerouteNo="0" devices="tripinfo_SN_65" vType="typeCar" speedFactor="1.00" vaporized=""/>
    <tripinfo id="EN_76" depart="38.00" departLane="ec_0" departPos="5.10" departSpeed="8.00" departDelay="3.00" arrival="393.50" arrivalLane="cn_0" arrivalPos="992.80" arrivalSpeed="8.00" duration="355.50" routeLength="1989.53" waitingTime="0.00" waitingCount="0" stopTime="0.00" timeLoss="106.57" rerouteNo="0" devices="tripinfo_EN_76" vType="typeCar" speedFactor="1.00" vaporized=""/>