<?xml version="1.0" encoding="UTF-8"?>

<!-- generated on 2022-06-23 03:05:37 by Eclipse SUMO GUI Version 1.12.0
<configuration xmlns:xsi="http://www.w3.org/2001/XMLSchema-instance" xsi:noNamespaceSchemaLocation="http://sumo.dlr.de/xsd/sumoConfiguration.xsd">

    <input>
        <net-file value="net.net.xml"/>
        <route-files value="routes.rou.xml"/>
    </input>

    <output>
        <tripinfo-output value="raw_data/(1,1,0)tripinfo.xml"/>
    </output>

    <time>
        <begin value="0"/>
        <step-length value="0.1"/>
    </time>

    <report>
        <verbose value="false"/>
        <log value="log.txt"/>
        <duration-log.statistics value="true"/>
        <no-step-log value="true"/>
    </report>

    <traci_server>
        <remote-port value="52445"/>
    </traci_server>

    <gui_only>
        <tracker-interval value="0.1"/>
    </gui_only>

</configuration>
-->

<tripinfos xmlns:xsi="http://www.w3.org/2001/XMLSchema-instance" xsi:noNamespaceSchemaLocation="http://sumo.dlr.de/xsd/tripinfo_file.xsd">
    <tripinfo id="A0" depart="0.00" departLane="nc_0" departPos="5.10" departSpeed="10.00" departDelay="0.00" arrival="248.70" arrivalLane="cw_0" arrivalPos="992.80" arrivalSpeed="7.89" duration="248.70" routeLength="1989.53" waitingTime="0.00" waitingCount="0" stopTime="0.00" timeLoss="49.23" rerouteNo="0" devices="tripinfo_A0" vType="typeCar@A0" speedFactor="1.00" vaporized=""/>
    <tripinfo id="A1" depart="2.90" departLane="ec_0" departPos="5.10" departSpeed="10.00" departDelay="0.10" arrival="250.70" arrivalLane="cw_0" arrivalPos="992.80" arrivalSpeed="9.49" duration="247.80" routeLength="1994.90" waitingTime="0.00" waitingCount="0" stopTime="0.00" timeLoss="48.27" rerouteNo="0" devices="tripinfo_A1" vType="typeCar@A1" speedFactor="1.00" vaporized=""/>
    <tripinfo id="A2" depart="4.90" departLane="sc_0" departPos="5.10" departSpeed="10.00" departDelay="0.05" arrival="252.40" arrivalLane="cw_0" arrivalPos="992.80" arrivalSpeed="10.00" duration="247.50" routeLength="1993.94" waitingTime="0.00" waitingCount="0" stopTime="0.00" timeLoss="47.64" rerouteNo="0" devices="tripinfo_A2" vType="typeCar@A2" speedFactor="1.00" vaporized=""/>
    <tripinfo id="A3" depart="7.80" departLane="ec_0" departPos="5.10" departSpeed="10.00" departDelay="0.03" arrival="253.10" arrivalLane="cs_0" arrivalPos="992.80" arrivalSpeed="10.00" duration="245.30" routeLength="1993.94" waitingTime="0.00" waitingCount="0" stopTime="0.00" timeLoss="45.46" rerouteNo="0" devices="tripinfo_A3" vType="typeCar@A3" speedFactor="1.00" vaporized=""/>
    <tripinfo id="A4" depart="10.00" departLane="wc_0" departPos="5.10" departSpeed="10.00" departDelay="0.05" arrival="254.40" arrivalLane="ce_0" arrivalPos="992.80" arrivalSpeed="10.00" duration="244.40" routeLength="1994.90" waitingTime="0.00" waitingCount="0" stopTime="0.00" timeLoss="44.84" rerouteNo="0" devices="tripinfo_A4" vType="typeCar@A4" speedFactor="1.00" vaporized=""/>
</tripinfos>
